LAMMPS data file. CGCMM style. atom_style atomic generated by VMD/TopoTools v1.5 on Sun Dec 26 09:02:35 +0800 2021
 6336 atoms
 0 bonds
 0 angles
 0 dihedrals
 0 impropers
 5 atom types
 0 bond types
 0 angle types
 0 dihedral types
 0 improper types
 1.797690 52.490531  xlo xhi
 0.004947 50.008147  ylo yhi
 0.023884 51.425485  zlo zhi
 0.010213 1.059568 0.009115 xy xz yz

# Pair Coeffs
#
# 1  C
# 3  H
# 5  I
# 2  N
# 4  Pb

 Masses

 1 12.010700 # C
 2 14.006700 # N
 3 8.000000 # H
 4 207.199997 # Pb
 5 126.904472 # I
#2 14.006700 # N
#4 207.199997 # Pb

 Atoms

1 1 2.557221 3.124600 2.940826 # C
2 1 2.822118 3.126874 15.791225 # C
3 1 3.087015 3.129148 28.641624 # C
4 1 3.351912 3.131421 41.492023 # C
5 1 2.559771 15.625401 2.940826 # C
6 1 2.824668 15.627675 15.791225 # C
7 1 3.089565 15.629948 28.641624 # C
8 1 3.354462 15.632222 41.492023 # C
9 1 2.562321 28.126202 2.940826 # C
10 1 2.827218 28.128475 15.791225 # C
11 1 3.092115 28.130749 28.641624 # C
12 1 3.357012 28.133022 41.492023 # C
13 1 2.564871 40.627003 2.940826 # C
14 1 2.829768 40.629276 15.791225 # C
15 1 3.094665 40.631550 28.641624 # C
16 1 3.359562 40.633823 41.492023 # C
17 1 15.230430 3.124600 2.940826 # C
18 1 15.495327 3.126874 15.791225 # C
19 1 15.760224 3.129148 28.641624 # C
20 1 16.025122 3.131421 41.492023 # C
21 1 15.232980 15.625401 2.940826 # C
22 1 15.497877 15.627675 15.791225 # C
23 1 15.762774 15.629948 28.641624 # C
24 1 16.027672 15.632222 41.492023 # C
25 1 15.235530 28.126202 2.940826 # C
26 1 15.500427 28.128475 15.791225 # C
27 1 15.765324 28.130749 28.641624 # C
28 1 16.030222 28.133022 41.492023 # C
29 1 15.238080 40.627003 2.940826 # C
30 1 15.502977 40.629276 15.791225 # C
31 1 15.767875 40.631550 28.641624 # C
32 1 16.032772 40.633823 41.492023 # C
33 1 27.903639 3.124600 2.940826 # C
34 1 28.168535 3.126874 15.791225 # C
35 1 28.433434 3.129148 28.641624 # C
36 1 28.698330 3.131421 41.492023 # C
37 1 27.906189 15.625401 2.940826 # C
38 1 28.171085 15.627675 15.791225 # C
39 1 28.435984 15.629948 28.641624 # C
40 1 28.700880 15.632222 41.492023 # C
41 1 27.908739 28.126202 2.940826 # C
42 1 28.173635 28.128475 15.791225 # C
43 1 28.438534 28.130749 28.641624 # C
44 1 28.703430 28.133022 41.492023 # C
45 1 27.911289 40.627003 2.940826 # C
46 1 28.176188 40.629276 15.791225 # C
47 1 28.441084 40.631550 28.641624 # C
48 1 28.705980 40.633823 41.492023 # C
49 1 40.576847 3.124600 2.940826 # C
50 1 40.841743 3.126874 15.791225 # C
51 1 41.106644 3.129148 28.641624 # C
52 1 41.371540 3.131421 41.492023 # C
53 1 40.579399 15.625401 2.940826 # C
54 1 40.844296 15.627675 15.791225 # C
55 1 41.109192 15.629948 28.641624 # C
56 1 41.374088 15.632222 41.492023 # C
57 1 40.581947 28.126202 2.940826 # C
58 1 40.846848 28.128475 15.791225 # C
59 1 41.111744 28.130749 28.641624 # C
60 1 41.376640 28.133022 41.492023 # C
61 1 40.584499 40.627003 2.940826 # C
62 1 40.849396 40.629276 15.791225 # C
63 1 41.114292 40.631550 28.641624 # C
64 1 41.379189 40.633823 41.492023 # C
65 1 2.689669 3.125737 9.366025 # C
66 1 2.954566 3.128011 22.216425 # C
67 1 3.219463 3.130284 35.066822 # C
68 1 3.484361 3.132558 47.917225 # C
69 1 2.692219 15.626538 9.366025 # C
70 1 2.957116 15.628812 22.216425 # C
71 1 3.222014 15.631085 35.066822 # C
72 1 3.486911 15.633359 47.917225 # C
73 1 2.694769 28.127338 9.366025 # C
74 1 2.959667 28.129612 22.216425 # C
75 1 3.224564 28.131886 35.066822 # C
76 1 3.489461 28.134159 47.917225 # C
77 1 2.697320 40.628139 9.366025 # C
78 1 2.962217 40.630413 22.216425 # C
79 1 3.227114 40.632687 35.066822 # C
80 1 3.492011 40.634960 47.917225 # C
81 1 15.362878 3.125737 9.366025 # C
82 1 15.627776 3.128011 22.216425 # C
83 1 15.892673 3.130284 35.066822 # C
84 1 16.157570 3.132558 47.917225 # C
85 1 15.365429 15.626538 9.366025 # C
86 1 15.630326 15.628812 22.216425 # C
87 1 15.895223 15.631085 35.066822 # C
88 1 16.160120 15.633359 47.917225 # C
89 1 15.367979 28.127338 9.366025 # C
90 1 15.632876 28.129612 22.216425 # C
91 1 15.897773 28.131886 35.066822 # C
92 1 16.162670 28.134159 47.917225 # C
93 1 15.370529 40.628139 9.366025 # C
94 1 15.635426 40.630413 22.216425 # C
95 1 15.900323 40.632687 35.066822 # C
96 1 16.165220 40.634960 47.917225 # C
97 1 28.036089 3.125737 9.366025 # C
98 1 28.300985 3.128011 22.216425 # C
99 1 28.565882 3.130284 35.066822 # C
100 1 28.830778 3.132558 47.917225 # C
101 1 28.038637 15.626538 9.366025 # C
102 1 28.303535 15.628812 22.216425 # C
103 1 28.568432 15.631085 35.066822 # C
104 1 28.833328 15.633359 47.917225 # C
105 1 28.041187 28.127338 9.366025 # C
106 1 28.306086 28.129612 22.216425 # C
107 1 28.570982 28.131886 35.066822 # C
108 1 28.835878 28.134159 47.917225 # C
109 1 28.043737 40.628139 9.366025 # C
110 1 28.308636 40.630413 22.216425 # C
111 1 28.573532 40.632687 35.066822 # C
112 1 28.838428 40.634960 47.917225 # C
113 1 40.709297 3.125737 9.366025 # C
114 1 40.974194 3.128011 22.216425 # C
115 1 41.239090 3.130284 35.066822 # C
116 1 41.503986 3.132558 47.917225 # C
117 1 40.711845 15.626538 9.366025 # C
118 1 40.976746 15.628812 22.216425 # C
119 1 41.241642 15.631085 35.066822 # C
120 1 41.506538 15.633359 47.917225 # C
121 1 40.714397 28.127338 9.366025 # C
122 1 40.979294 28.129612 22.216425 # C
123 1 41.244190 28.131886 35.066822 # C
124 1 41.509087 28.134159 47.917225 # C
125 1 40.716946 40.628139 9.366025 # C
126 1 40.981846 40.630413 22.216425 # C
127 1 41.246742 40.632687 35.066822 # C
128 1 41.511639 40.634960 47.917225 # C
129 1 2.558496 9.375001 2.940826 # C
130 1 2.823393 9.377275 15.791225 # C
131 1 3.088290 9.379548 28.641624 # C
132 1 3.353187 9.381822 41.492023 # C
133 1 2.561046 21.875801 2.940826 # C
134 1 2.825943 21.878075 15.791225 # C
135 1 3.090840 21.880348 28.641624 # C
136 1 3.355737 21.882624 41.492023 # C
137 1 2.563596 34.376602 2.940826 # C
138 1 2.828493 34.378876 15.791225 # C
139 1 3.093390 34.381149 28.641624 # C
140 1 3.358287 34.383423 41.492023 # C
141 1 2.566146 46.877403 2.940826 # C
142 1 2.831043 46.879677 15.791225 # C
143 1 3.095940 46.881950 28.641624 # C
144 1 3.360838 46.884224 41.492023 # C
145 1 15.231705 9.375001 2.940826 # C
146 1 15.496602 9.377275 15.791225 # C
147 1 15.761499 9.379548 28.641624 # C
148 1 16.026396 9.381822 41.492023 # C
149 1 15.234255 21.875801 2.940826 # C
150 1 15.499152 21.878075 15.791225 # C
151 1 15.764049 21.880348 28.641624 # C
152 1 16.028946 21.882624 41.492023 # C
153 1 15.236805 34.376602 2.940826 # C
154 1 15.501702 34.378876 15.791225 # C
155 1 15.766599 34.381149 28.641624 # C
156 1 16.031496 34.383423 41.492023 # C
157 1 15.239355 46.877403 2.940826 # C
158 1 15.504252 46.879677 15.791225 # C
159 1 15.769150 46.881950 28.641624 # C
160 1 16.034046 46.884224 41.492023 # C
161 1 27.904915 9.375001 2.940826 # C
162 1 28.169811 9.377275 15.791225 # C
163 1 28.434708 9.379548 28.641624 # C
164 1 28.699606 9.381822 41.492023 # C
165 1 27.907463 21.875801 2.940826 # C
166 1 28.172361 21.878075 15.791225 # C
167 1 28.437260 21.880348 28.641624 # C
168 1 28.702156 21.882624 41.492023 # C
169 1 27.910013 34.376602 2.940826 # C
170 1 28.174911 34.378876 15.791225 # C
171 1 28.439810 34.381149 28.641624 # C
172 1 28.704706 34.383423 41.492023 # C
173 1 27.912565 46.877403 2.940826 # C
174 1 28.177462 46.879677 15.791225 # C
175 1 28.442360 46.881950 28.641624 # C
176 1 28.707256 46.884224 41.492023 # C
177 1 40.578121 9.375001 2.940826 # C
178 1 40.843021 9.377275 15.791225 # C
179 1 41.107918 9.379548 28.641624 # C
180 1 41.372814 9.381822 41.492023 # C
181 1 40.580673 21.875801 2.940826 # C
182 1 40.845570 21.878075 15.791225 # C
183 1 41.110470 21.880348 28.641624 # C
184 1 41.375366 21.882624 41.492023 # C
185 1 40.583225 34.376602 2.940826 # C
186 1 40.848122 34.378876 15.791225 # C
187 1 41.113018 34.381149 28.641624 # C
188 1 41.377914 34.383423 41.492023 # C
189 1 40.585773 46.877403 2.940826 # C
190 1 40.850670 46.879677 15.791225 # C
191 1 41.115566 46.881950 28.641624 # C
192 1 41.380466 46.884224 41.492023 # C
193 1 2.690944 9.376138 9.366025 # C
194 1 2.955841 9.378411 22.216425 # C
195 1 3.220739 9.380685 35.066822 # C
196 1 3.485636 9.382959 47.917225 # C
197 1 2.693494 21.876940 9.366025 # C
198 1 2.958392 21.879211 22.216425 # C
199 1 3.223289 21.881487 35.066822 # C
200 1 3.488186 21.883759 47.917225 # C
201 1 2.696045 34.377739 9.366025 # C
202 1 2.960942 34.380013 22.216425 # C
203 1 3.225839 34.382286 35.066822 # C
204 1 3.490736 34.384560 47.917225 # C
205 1 2.698595 46.878540 9.366025 # C
206 1 2.963492 46.880814 22.216425 # C
207 1 3.228389 46.883087 35.066822 # C
208 1 3.493286 46.885361 47.917225 # C
209 1 15.364153 9.376138 9.366025 # C
210 1 15.629051 9.378411 22.216425 # C
211 1 15.893948 9.380685 35.066822 # C
212 1 16.158846 9.382959 47.917225 # C
213 1 15.366704 21.876940 9.366025 # C
214 1 15.631601 21.879211 22.216425 # C
215 1 15.896498 21.881487 35.066822 # C
216 1 16.161394 21.883759 47.917225 # C
217 1 15.369254 34.377739 9.366025 # C
218 1 15.634151 34.380013 22.216425 # C
219 1 15.899048 34.382286 35.066822 # C
220 1 16.163944 34.384560 47.917225 # C
221 1 15.371804 46.878540 9.366025 # C
222 1 15.636701 46.880814 22.216425 # C
223 1 15.901598 46.883087 35.066822 # C
224 1 16.166494 46.885361 47.917225 # C
225 1 28.037363 9.376138 9.366025 # C
226 1 28.302259 9.378411 22.216425 # C
227 1 28.567158 9.380685 35.066822 # C
228 1 28.832054 9.382959 47.917225 # C
229 1 28.039913 21.876940 9.366025 # C
230 1 28.304810 21.879211 22.216425 # C
231 1 28.569708 21.881487 35.066822 # C
232 1 28.834604 21.883759 47.917225 # C
233 1 28.042463 34.377739 9.366025 # C
234 1 28.307360 34.380013 22.216425 # C
235 1 28.572256 34.382286 35.066822 # C
236 1 28.837154 34.384560 47.917225 # C
237 1 28.045013 46.878540 9.366025 # C
238 1 28.309910 46.880814 22.216425 # C
239 1 28.574806 46.883087 35.066822 # C
240 1 28.839705 46.885361 47.917225 # C
241 1 40.710571 9.376138 9.366025 # C
242 1 40.975468 9.378411 22.216425 # C
243 1 41.240368 9.380685 35.066822 # C
244 1 41.505264 9.382959 47.917225 # C
245 1 40.713123 21.876940 9.366025 # C
246 1 40.978020 21.879211 22.216425 # C
247 1 41.242916 21.881487 35.066822 # C
248 1 41.507813 21.883759 47.917225 # C
249 1 40.715672 34.377739 9.366025 # C
250 1 40.980568 34.380013 22.216425 # C
251 1 41.245464 34.382286 35.066822 # C
252 1 41.510365 34.384560 47.917225 # C
253 1 40.718224 46.878540 9.366025 # C
254 1 40.983120 46.880814 22.216425 # C
255 1 41.248016 46.883087 35.066822 # C
256 1 41.512913 46.885361 47.917225 # C
257 1 8.893825 3.124600 2.940826 # C
258 1 9.158723 3.126874 15.791225 # C
259 1 9.423620 3.129148 28.641624 # C
260 1 9.688517 3.131421 41.492023 # C
261 1 8.896376 15.625401 2.940826 # C
262 1 9.161273 15.627675 15.791225 # C
263 1 9.426170 15.629948 28.641624 # C
264 1 9.691067 15.632222 41.492023 # C
265 1 8.898926 28.126202 2.940826 # C
266 1 9.163823 28.128475 15.791225 # C
267 1 9.428720 28.130749 28.641624 # C
268 1 9.693617 28.133022 41.492023 # C
269 1 8.901476 40.627003 2.940826 # C
270 1 9.166373 40.629276 15.791225 # C
271 1 9.431270 40.631550 28.641624 # C
272 1 9.696167 40.633823 41.492023 # C
273 1 21.567036 3.124600 2.940826 # C
274 1 21.831932 3.126874 15.791225 # C
275 1 22.096828 3.129148 28.641624 # C
276 1 22.361727 3.131421 41.492023 # C
277 1 21.569586 15.625401 2.940826 # C
278 1 21.834482 15.627675 15.791225 # C
279 1 22.099379 15.629948 28.641624 # C
280 1 22.364277 15.632222 41.492023 # C
281 1 21.572136 28.126202 2.940826 # C
282 1 21.837032 28.128475 15.791225 # C
283 1 22.101929 28.130749 28.641624 # C
284 1 22.366825 28.133022 41.492023 # C
285 1 21.574684 40.627003 2.940826 # C
286 1 21.839582 40.629276 15.791225 # C
287 1 22.104479 40.631550 28.641624 # C
288 1 22.369375 40.633823 41.492023 # C
289 1 34.240246 3.124600 2.940826 # C
290 1 34.505142 3.126874 15.791225 # C
291 1 34.770039 3.129148 28.641624 # C
292 1 35.034935 3.131421 41.492023 # C
293 1 34.242794 15.625401 2.940826 # C
294 1 34.507690 15.627675 15.791225 # C
295 1 34.772587 15.629948 28.641624 # C
296 1 35.037483 15.632222 41.492023 # C
297 1 34.245342 28.126202 2.940826 # C
298 1 34.510242 28.128475 15.791225 # C
299 1 34.775139 28.130749 28.641624 # C
300 1 35.040035 28.133022 41.492023 # C
301 1 34.247894 40.627003 2.940826 # C
302 1 34.512791 40.629276 15.791225 # C
303 1 34.777687 40.631550 28.641624 # C
304 1 35.042587 40.633823 41.492023 # C
305 1 46.913452 3.124600 2.940826 # C
306 1 47.178349 3.126874 15.791225 # C
307 1 47.443249 3.129148 28.641624 # C
308 1 47.708145 3.131421 41.492023 # C
309 1 46.916004 15.625401 2.940826 # C
310 1 47.180901 15.627675 15.791225 # C
311 1 47.445797 15.629948 28.641624 # C
312 1 47.710693 15.632222 41.492023 # C
313 1 46.918552 28.126202 2.940826 # C
314 1 47.183449 28.128475 15.791225 # C
315 1 47.448349 28.130749 28.641624 # C
316 1 47.713245 28.133022 41.492023 # C
317 1 46.921104 40.627003 2.940826 # C
318 1 47.186001 40.629276 15.791225 # C
319 1 47.450897 40.631550 28.641624 # C
320 1 47.715794 40.633823 41.492023 # C
321 1 9.026274 3.125737 9.366025 # C
322 1 9.291171 3.128011 22.216425 # C
323 1 9.556068 3.130284 35.066822 # C
324 1 9.820965 3.132558 47.917225 # C
325 1 9.028824 15.626538 9.366025 # C
326 1 9.293721 15.628812 22.216425 # C
327 1 9.558618 15.631085 35.066822 # C
328 1 9.823516 15.633359 47.917225 # C
329 1 9.031374 28.127338 9.366025 # C
330 1 9.296271 28.129612 22.216425 # C
331 1 9.561169 28.131886 35.066822 # C
332 1 9.826066 28.134159 47.917225 # C
333 1 9.033924 40.628139 9.366025 # C
334 1 9.298822 40.630413 22.216425 # C
335 1 9.563719 40.632687 35.066822 # C
336 1 9.828616 40.634960 47.917225 # C
337 1 21.699484 3.125737 9.366025 # C
338 1 21.964380 3.128011 22.216425 # C
339 1 22.229277 3.130284 35.066822 # C
340 1 22.494175 3.132558 47.917225 # C
341 1 21.702032 15.626538 9.366025 # C
342 1 21.966930 15.628812 22.216425 # C
343 1 22.231829 15.631085 35.066822 # C
344 1 22.496725 15.633359 47.917225 # C
345 1 21.704582 28.127338 9.366025 # C
346 1 21.969481 28.129612 22.216425 # C
347 1 22.234379 28.131886 35.066822 # C
348 1 22.499275 28.134159 47.917225 # C
349 1 21.707134 40.628139 9.366025 # C
350 1 21.972031 40.630413 22.216425 # C
351 1 22.236929 40.632687 35.066822 # C
352 1 22.501825 40.634960 47.917225 # C
353 1 34.372692 3.125737 9.366025 # C
354 1 34.637589 3.128011 22.216425 # C
355 1 34.902489 3.130284 35.066822 # C
356 1 35.167385 3.132558 47.917225 # C
357 1 34.375244 15.626538 9.366025 # C
358 1 34.640141 15.628812 22.216425 # C
359 1 34.905037 15.631085 35.066822 # C
360 1 35.169933 15.633359 47.917225 # C
361 1 34.377792 28.127338 9.366025 # C
362 1 34.642689 28.129612 22.216425 # C
363 1 34.907585 28.131886 35.066822 # C
364 1 35.172485 28.134159 47.917225 # C
365 1 34.380344 40.628139 9.366025 # C
366 1 34.645241 40.630413 22.216425 # C
367 1 34.910137 40.632687 35.066822 # C
368 1 35.175034 40.634960 47.917225 # C
369 1 47.045902 3.125737 9.366025 # C
370 1 47.310799 3.128011 22.216425 # C
371 1 47.575695 3.130284 35.066822 # C
372 1 47.840591 3.132558 47.917225 # C
373 1 47.048450 15.626538 9.366025 # C
374 1 47.313351 15.628812 22.216425 # C
375 1 47.578247 15.631085 35.066822 # C
376 1 47.843143 15.633359 47.917225 # C
377 1 47.051003 28.127338 9.366025 # C
378 1 47.315899 28.129612 22.216425 # C
379 1 47.580795 28.131886 35.066822 # C
380 1 47.845692 28.134159 47.917225 # C
381 1 47.053551 40.628139 9.366025 # C
382 1 47.318447 40.630413 22.216425 # C
383 1 47.583347 40.632687 35.066822 # C
384 1 47.848244 40.634960 47.917225 # C
385 1 8.895101 9.375001 2.940826 # C
386 1 9.159998 9.377275 15.791225 # C
387 1 9.424895 9.379548 28.641624 # C
388 1 9.689792 9.381822 41.492023 # C
389 1 8.897651 21.875801 2.940826 # C
390 1 9.162548 21.878075 15.791225 # C
391 1 9.427445 21.880348 28.641624 # C
392 1 9.692342 21.882624 41.492023 # C
393 1 8.900201 34.376602 2.940826 # C
394 1 9.165098 34.378876 15.791225 # C
395 1 9.429995 34.381149 28.641624 # C
396 1 9.694892 34.383423 41.492023 # C
397 1 8.902751 46.877403 2.940826 # C
398 1 9.167648 46.879677 15.791225 # C
399 1 9.432545 46.881950 28.641624 # C
400 1 9.697442 46.884224 41.492023 # C
401 1 21.568310 9.375001 2.940826 # C
402 1 21.833206 9.377275 15.791225 # C
403 1 22.098104 9.379548 28.641624 # C
404 1 22.363001 9.381822 41.492023 # C
405 1 21.570860 21.875801 2.940826 # C
406 1 21.835756 21.878075 15.791225 # C
407 1 22.100655 21.880348 28.641624 # C
408 1 22.365551 21.882624 41.492023 # C
409 1 21.573410 34.376602 2.940826 # C
410 1 21.838306 34.378876 15.791225 # C
411 1 22.103205 34.381149 28.641624 # C
412 1 22.368101 34.383423 41.492023 # C
413 1 21.575960 46.877403 2.940826 # C
414 1 21.840857 46.879677 15.791225 # C
415 1 22.105755 46.881950 28.641624 # C
416 1 22.370651 46.884224 41.492023 # C
417 1 34.241520 9.375001 2.940826 # C
418 1 34.506416 9.377275 15.791225 # C
419 1 34.771313 9.379548 28.641624 # C
420 1 35.036209 9.381822 41.492023 # C
421 1 34.244068 21.875801 2.940826 # C
422 1 34.508965 21.878075 15.791225 # C
423 1 34.773865 21.880348 28.641624 # C
424 1 35.038761 21.882624 41.492023 # C
425 1 34.246620 34.376602 2.940826 # C
426 1 34.511517 34.378876 15.791225 # C
427 1 34.776413 34.381149 28.641624 # C
428 1 35.041309 34.383423 41.492023 # C
429 1 34.249168 46.877403 2.940826 # C
430 1 34.514065 46.879677 15.791225 # C
431 1 34.778965 46.881950 28.641624 # C
432 1 35.043861 46.884224 41.492023 # C
433 1 46.914726 9.375001 2.940826 # C
434 1 47.179626 9.377275 15.791225 # C
435 1 47.444523 9.379548 28.641624 # C
436 1 47.709419 9.381822 41.492023 # C
437 1 46.917278 21.875801 2.940826 # C
438 1 47.182175 21.878075 15.791225 # C
439 1 47.447071 21.880348 28.641624 # C
440 1 47.711971 21.882624 41.492023 # C
441 1 46.919827 34.376602 2.940826 # C
442 1 47.184727 34.378876 15.791225 # C
443 1 47.449623 34.381149 28.641624 # C
444 1 47.714520 34.383423 41.492023 # C
445 1 46.922379 46.877403 2.940826 # C
446 1 47.187275 46.879677 15.791225 # C
447 1 47.452171 46.881950 28.641624 # C
448 1 47.717072 46.884224 41.492023 # C
449 1 9.027549 9.376138 9.366025 # C
450 1 9.292446 9.378411 22.216425 # C
451 1 9.557343 9.380685 35.066822 # C
452 1 9.822240 9.382959 47.917225 # C
453 1 9.030099 21.876940 9.366025 # C
454 1 9.294996 21.879211 22.216425 # C
455 1 9.559893 21.881487 35.066822 # C
456 1 9.824791 21.883759 47.917225 # C
457 1 9.032649 34.377739 9.366025 # C
458 1 9.297546 34.380013 22.216425 # C
459 1 9.562444 34.382286 35.066822 # C
460 1 9.827341 34.384560 47.917225 # C
461 1 9.035199 46.878540 9.366025 # C
462 1 9.300097 46.880814 22.216425 # C
463 1 9.564994 46.883087 35.066822 # C
464 1 9.829891 46.885361 47.917225 # C
465 1 21.700758 9.376138 9.366025 # C
466 1 21.965654 9.378411 22.216425 # C
467 1 22.230553 9.380685 35.066822 # C
468 1 22.495449 9.382959 47.917225 # C
469 1 21.703308 21.876940 9.366025 # C
470 1 21.968206 21.879211 22.216425 # C
471 1 22.233103 21.881487 35.066822 # C
472 1 22.497999 21.883759 47.917225 # C
473 1 21.705858 34.377739 9.366025 # C
474 1 21.970757 34.380013 22.216425 # C
475 1 22.235653 34.382286 35.066822 # C
476 1 22.500549 34.384560 47.917225 # C
477 1 21.708408 46.878540 9.366025 # C
478 1 21.973307 46.880814 22.216425 # C
479 1 22.238203 46.883087 35.066822 # C
480 1 22.503099 46.885361 47.917225 # C
481 1 34.373966 9.376138 9.366025 # C
482 1 34.638866 9.378411 22.216425 # C
483 1 34.903763 9.380685 35.066822 # C
484 1 35.168659 9.382959 47.917225 # C
485 1 34.376518 21.876940 9.366025 # C
486 1 34.641415 21.879211 22.216425 # C
487 1 34.906311 21.881487 35.066822 # C
488 1 35.171207 21.883759 47.917225 # C
489 1 34.379066 34.377739 9.366025 # C
490 1 34.643967 34.380013 22.216425 # C
491 1 34.908863 34.382286 35.066822 # C
492 1 35.173759 34.384560 47.917225 # C
493 1 34.381618 46.878540 9.366025 # C
494 1 34.646515 46.880814 22.216425 # C
495 1 34.911411 46.883087 35.066822 # C
496 1 35.176308 46.885361 47.917225 # C
497 1 47.047176 9.376138 9.366025 # C
498 1 47.312073 9.378411 22.216425 # C
499 1 47.576969 9.380685 35.066822 # C
500 1 47.841869 9.382959 47.917225 # C
501 1 47.049728 21.876940 9.366025 # C
502 1 47.314625 21.879211 22.216425 # C
503 1 47.579521 21.881487 35.066822 # C
504 1 47.844418 21.883759 47.917225 # C
505 1 47.052277 34.377739 9.366025 # C
506 1 47.317173 34.380013 22.216425 # C
507 1 47.582069 34.382286 35.066822 # C
508 1 47.846970 34.384560 47.917225 # C
509 1 47.054829 46.878540 9.366025 # C
510 1 47.319725 46.880814 22.216425 # C
511 1 47.584621 46.883087 35.066822 # C
512 1 47.849518 46.885361 47.917225 # C
513 2 3.931212 3.125840 3.519467 # N
514 2 4.196109 3.128114 16.369865 # N
515 2 4.461007 3.130387 29.220264 # N
516 2 4.725904 3.132661 42.070663 # N
517 2 3.933762 15.626641 3.519467 # N
518 2 4.198660 15.628914 16.369865 # N
519 2 4.463557 15.631188 29.220264 # N
520 2 4.728454 15.633462 42.070663 # N
521 2 3.936313 28.127441 3.519467 # N
522 2 4.201210 28.129715 16.369865 # N
523 2 4.466107 28.131989 29.220264 # N
524 2 4.731004 28.134262 42.070663 # N
525 2 3.938863 40.628242 3.519467 # N
526 2 4.203760 40.630516 16.369865 # N
527 2 4.468657 40.632790 29.220264 # N
528 2 4.733554 40.635063 42.070663 # N
529 2 16.604422 3.125840 3.519467 # N
530 2 16.869320 3.128114 16.369865 # N
531 2 17.134216 3.130387 29.220264 # N
532 2 17.399113 3.132661 42.070663 # N
533 2 16.606972 15.626641 3.519467 # N
534 2 16.871868 15.628914 16.369865 # N
535 2 17.136766 15.631188 29.220264 # N
536 2 17.401663 15.633462 42.070663 # N
537 2 16.609522 28.127441 3.519467 # N
538 2 16.874418 28.129715 16.369865 # N
539 2 17.139317 28.131989 29.220264 # N
540 2 17.404213 28.134262 42.070663 # N
541 2 16.612072 40.628242 3.519467 # N
542 2 16.876968 40.630516 16.369865 # N
543 2 17.141867 40.632790 29.220264 # N
544 2 17.406763 40.635063 42.070663 # N
545 2 29.277632 3.125840 3.519467 # N
546 2 29.542528 3.128114 16.369865 # N
547 2 29.807425 3.130387 29.220264 # N
548 2 30.072323 3.132661 42.070663 # N
549 2 29.280182 15.626641 3.519467 # N
550 2 29.545078 15.628914 16.369865 # N
551 2 29.809975 15.631188 29.220264 # N
552 2 30.074871 15.633462 42.070663 # N
553 2 29.282730 28.127441 3.519467 # N
554 2 29.547628 28.129715 16.369865 # N
555 2 29.812525 28.131989 29.220264 # N
556 2 30.077421 28.134262 42.070663 # N
557 2 29.285280 40.628242 3.519467 # N
558 2 29.550179 40.630516 16.369865 # N
559 2 29.815075 40.632790 29.220264 # N
560 2 30.079971 40.635063 42.070663 # N
561 2 41.950840 3.125840 3.519467 # N
562 2 42.215736 3.128114 16.369865 # N
563 2 42.480633 3.130387 29.220264 # N
564 2 42.745529 3.132661 42.070663 # N
565 2 41.953388 15.626641 3.519467 # N
566 2 42.218288 15.628914 16.369865 # N
567 2 42.483185 15.631188 29.220264 # N
568 2 42.748081 15.633462 42.070663 # N
569 2 41.955940 28.127441 3.519467 # N
570 2 42.220837 28.129715 16.369865 # N
571 2 42.485733 28.131989 29.220264 # N
572 2 42.750633 28.134262 42.070663 # N
573 2 41.958488 40.628242 3.519467 # N
574 2 42.223389 40.630516 16.369865 # N
575 2 42.488285 40.632790 29.220264 # N
576 2 42.753181 40.635063 42.070663 # N
577 2 4.063661 3.126977 9.944666 # N
578 2 4.328558 3.129250 22.795065 # N
579 2 4.593455 3.131524 35.645466 # N
580 2 4.858352 3.133798 48.495865 # N
581 2 4.066211 15.627778 9.944666 # N
582 2 4.331108 15.630051 22.795065 # N
583 2 4.596005 15.632325 35.645466 # N
584 2 4.860902 15.634598 48.495865 # N
585 2 4.068761 28.128578 9.944666 # N
586 2 4.333658 28.130852 22.795065 # N
587 2 4.598555 28.133125 35.645466 # N
588 2 4.863453 28.135399 48.495865 # N
589 2 4.071311 40.629379 9.944666 # N
590 2 4.336208 40.631653 22.795065 # N
591 2 4.601106 40.633926 35.645466 # N
592 2 4.866003 40.636200 48.495865 # N
593 2 16.736870 3.126977 9.944666 # N
594 2 17.001766 3.129250 22.795065 # N
595 2 17.266665 3.131524 35.645466 # N
596 2 17.531561 3.133798 48.495865 # N
597 2 16.739420 15.627778 9.944666 # N
598 2 17.004316 15.630051 22.795065 # N
599 2 17.269215 15.632325 35.645466 # N
600 2 17.534113 15.634598 48.495865 # N
601 2 16.741970 28.128578 9.944666 # N
602 2 17.006866 28.130852 22.795065 # N
603 2 17.271765 28.133125 35.645466 # N
604 2 17.536661 28.135399 48.495865 # N
605 2 16.744520 40.629379 9.944666 # N
606 2 17.009418 40.631653 22.795065 # N
607 2 17.274315 40.633926 35.645466 # N
608 2 17.539211 40.636200 48.495865 # N
609 2 29.410078 3.126977 9.944666 # N
610 2 29.674976 3.129250 22.795065 # N
611 2 29.939873 3.131524 35.645466 # N
612 2 30.204771 3.133798 48.495865 # N
613 2 29.412628 15.627778 9.944666 # N
614 2 29.677526 15.630051 22.795065 # N
615 2 29.942425 15.632325 35.645466 # N
616 2 30.207321 15.634598 48.495865 # N
617 2 29.415180 28.128578 9.944666 # N
618 2 29.680077 28.130852 22.795065 # N
619 2 29.944975 28.133125 35.645466 # N
620 2 30.209871 28.135399 48.495865 # N
621 2 29.417730 40.629379 9.944666 # N
622 2 29.682627 40.631653 22.795065 # N
623 2 29.947523 40.633926 35.645466 # N
624 2 30.212421 40.636200 48.495865 # N
625 2 42.083286 3.126977 9.944666 # N
626 2 42.348186 3.129250 22.795065 # N
627 2 42.613083 3.131524 35.645466 # N
628 2 42.877979 3.133798 48.495865 # N
629 2 42.085838 15.627778 9.944666 # N
630 2 42.350735 15.630051 22.795065 # N
631 2 42.615631 15.632325 35.645466 # N
632 2 42.880531 15.634598 48.495865 # N
633 2 42.088390 28.128578 9.944666 # N
634 2 42.353287 28.130852 22.795065 # N
635 2 42.618183 28.133125 35.645466 # N
636 2 42.883080 28.135399 48.495865 # N
637 2 42.090939 40.629379 9.944666 # N
638 2 42.355835 40.631653 22.795065 # N
639 2 42.620731 40.633926 35.645466 # N
640 2 42.885632 40.636200 48.495865 # N
641 2 3.932487 9.376240 3.519467 # N
642 2 4.197384 9.378514 16.369865 # N
643 2 4.462282 9.380788 29.220264 # N
644 2 4.727179 9.383061 42.070663 # N
645 2 3.935037 21.877041 3.519467 # N
646 2 4.199935 21.879314 16.369865 # N
647 2 4.464832 21.881588 29.220264 # N
648 2 4.729729 21.883862 42.070663 # N
649 2 3.937588 34.377842 3.519467 # N
650 2 4.202485 34.380116 16.369865 # N
651 2 4.467382 34.382389 29.220264 # N
652 2 4.732279 34.384663 42.070663 # N
653 2 3.940138 46.878643 3.519467 # N
654 2 4.205035 46.880917 16.369865 # N
655 2 4.469932 46.883190 29.220264 # N
656 2 4.734829 46.885464 42.070663 # N
657 2 16.605698 9.376240 3.519467 # N
658 2 16.870594 9.378514 16.369865 # N
659 2 17.135490 9.380788 29.220264 # N
660 2 17.400389 9.383061 42.070663 # N
661 2 16.608248 21.877041 3.519467 # N
662 2 16.873144 21.879314 16.369865 # N
663 2 17.138041 21.881588 29.220264 # N
664 2 17.402939 21.883862 42.070663 # N
665 2 16.610798 34.377842 3.519467 # N
666 2 16.875694 34.380116 16.369865 # N
667 2 17.140591 34.382389 29.220264 # N
668 2 17.405487 34.384663 42.070663 # N
669 2 16.613346 46.878643 3.519467 # N
670 2 16.878244 46.880917 16.369865 # N
671 2 17.143141 46.883190 29.220264 # N
672 2 17.408037 46.885464 42.070663 # N
673 2 29.278906 9.376240 3.519467 # N
674 2 29.543802 9.378514 16.369865 # N
675 2 29.808701 9.380788 29.220264 # N
676 2 30.073597 9.383061 42.070663 # N
677 2 29.281456 21.877041 3.519467 # N
678 2 29.546352 21.879314 16.369865 # N
679 2 29.811251 21.881588 29.220264 # N
680 2 30.076147 21.883862 42.070663 # N
681 2 29.284006 34.377842 3.519467 # N
682 2 29.548903 34.380116 16.369865 # N
683 2 29.813801 34.382389 29.220264 # N
684 2 30.078697 34.384663 42.070663 # N
685 2 29.286556 46.878643 3.519467 # N
686 2 29.551453 46.880917 16.369865 # N
687 2 29.816351 46.883190 29.220264 # N
688 2 30.081247 46.885464 42.070663 # N
689 2 41.952114 9.376240 3.519467 # N
690 2 42.217010 9.378514 16.369865 # N
691 2 42.481911 9.380788 29.220264 # N
692 2 42.746807 9.383061 42.070663 # N
693 2 41.954666 21.877041 3.519467 # N
694 2 42.219563 21.879314 16.369865 # N
695 2 42.484459 21.881588 29.220264 # N
696 2 42.749355 21.883862 42.070663 # N
697 2 41.957214 34.377842 3.519467 # N
698 2 42.222111 34.380116 16.369865 # N
699 2 42.487007 34.382389 29.220264 # N
700 2 42.751907 34.384663 42.070663 # N
701 2 41.959766 46.878643 3.519467 # N
702 2 42.224663 46.880917 16.369865 # N
703 2 42.489559 46.883190 29.220264 # N
704 2 42.754456 46.885464 42.070663 # N
705 2 4.064936 9.377377 9.944666 # N
706 2 4.329833 9.379651 22.795065 # N
707 2 4.594730 9.381924 35.645466 # N
708 2 4.859627 9.384198 48.495865 # N
709 2 4.067486 21.878178 9.944666 # N
710 2 4.332383 21.880451 22.795065 # N
711 2 4.597280 21.882725 35.645466 # N
712 2 4.862177 21.884998 48.495865 # N
713 2 4.070036 34.378979 9.944666 # N
714 2 4.334933 34.381252 22.795065 # N
715 2 4.599830 34.383526 35.645466 # N
716 2 4.864728 34.385799 48.495865 # N
717 2 4.072586 46.879780 9.944666 # N
718 2 4.337483 46.882053 22.795065 # N
719 2 4.602381 46.884327 35.645466 # N
720 2 4.867278 46.886600 48.495865 # N
721 2 16.738146 9.377377 9.944666 # N
722 2 17.003042 9.379651 22.795065 # N
723 2 17.267939 9.381924 35.645466 # N
724 2 17.532837 9.384198 48.495865 # N
725 2 16.740696 21.878178 9.944666 # N
726 2 17.005592 21.880451 22.795065 # N
727 2 17.270489 21.882725 35.645466 # N
728 2 17.535387 21.884998 48.495865 # N
729 2 16.743244 34.378979 9.944666 # N
730 2 17.008142 34.381252 22.795065 # N
731 2 17.273041 34.383526 35.645466 # N
732 2 17.537937 34.385799 48.495865 # N
733 2 16.745796 46.879780 9.944666 # N